LAMMPS Description

     14418  atoms
     14337  bonds
     14256  angles
     14175  dihedrals
     0  impropers

     2  atom types
     1  bond types
     1  angle types
     1  dihedral types

  0 65 xlo xhi
  0 65 ylo yhi
  0 900 zlo zhi

Masses

1 14.0  # CH2
2 15.0  # CH3

Atoms  # full

1 1 2 0.0 10.0 10.0 3.0
2 1 1 0.0 10.0 10.0 4.54
3 1 1 0.0 10.0 10.0 6.08
4 1 1 0.0 10.0 10.0 7.62
5 1 1 0.0 10.0 10.0 9.16
6 1 1 0.0 10.0 10.0 10.7
7 1 1 0.0 10.0 10.0 12.24
8 1 1 0.0 10.0 10.0 13.780000000000001
9 1 1 0.0 10.0 10.0 15.32
10 1 1 0.0 10.0 10.0 16.86
11 1 1 0.0 10.0 10.0 18.4
12 1 1 0.0 10.0 10.0 19.94
13 1 1 0.0 10.0 10.0 21.48
14 1 1 0.0 10.0 10.0 23.02
15 1 1 0.0 10.0 10.0 24.560000000000002
16 1 1 0.0 10.0 10.0 26.1
17 1 1 0.0 10.0 10.0 27.64
18 1 1 0.0 10.0 10.0 29.18
19 1 1 0.0 10.0 10.0 30.72
20 1 1 0.0 10.0 10.0 32.260000000000005
21 1 1 0.0 10.0 10.0 33.8
22 1 1 0.0 10.0 10.0 35.34
23 1 1 0.0 10.0 10.0 36.88
24 1 1 0.0 10.0 10.0 38.42
25 1 1 0.0 10.0 10.0 39.96
26 1 1 0.0 10.0 10.0 41.5
27 1 1 0.0 10.0 10.0 43.04
28 1 1 0.0 10.0 10.0 44.58
29 1 1 0.0 10.0 10.0 46.120000000000005
30 1 1 0.0 10.0 10.0 47.660000000000004
31 1 1 0.0 10.0 10.0 49.2
32 1 1 0.0 10.0 10.0 50.74
33 1 1 0.0 10.0 10.0 52.28
34 1 1 0.0 10.0 10.0 53.82
35 1 1 0.0 10.0 10.0 55.36
36 1 1 0.0 10.0 10.0 56.9
37 1 1 0.0 10.0 10.0 58.44
38 1 1 0.0 10.0 10.0 59.980000000000004
39 1 1 0.0 10.0 10.0 61.52
40 1 1 0.0 10.0 10.0 63.06
41 1 1 0.0 10.0 10.0 64.6
42 1 1 0.0 10.0 10.0 66.14
43 1 1 0.0 10.0 10.0 67.68
44 1 1 0.0 10.0 10.0 69.22
45 1 1 0.0 10.0 10.0 70.76
46 1 1 0.0 10.0 10.0 72.3
47 1 1 0.0 10.0 10.0 73.84
48 1 1 0.0 10.0 10.0 75.38
49 1 1 0.0 10.0 10.0 76.92
50 1 1 0.0 10.0 10.0 78.46000000000001
51 1 1 0.0 10.0 10.0 80.0
52 1 1 0.0 10.0 10.0 81.54
53 1 1 0.0 10.0 10.0 83.08
54 1 1 0.0 10.0 10.0 84.62
55 1 1 0.0 10.0 10.0 86.16
56 1 1 0.0 10.0 10.0 87.7
57 1 1 0.0 10.0 10.0 89.24000000000001
58 1 1 0.0 10.0 10.0 90.78
59 1 1 0.0 10.0 10.0 92.32000000000001
60 1 1 0.0 10.0 10.0 93.86
61 1 1 0.0 10.0 10.0 95.4
62 1 1 0.0 10.0 10.0 96.94
63 1 1 0.0 10.0 10.0 98.48
64 1 1 0.0 10.0 10.0 100.02
65 1 1 0.0 10.0 10.0 101.56
66 1 1 0.0 10.0 10.0 103.10000000000001
67 1 1 0.0 10.0 10.0 104.64
68 1 1 0.0 10.0 10.0 106.18
69 1 1 0.0 10.0 10.0 107.72
70 1 1 0.0 10.0 10.0 109.26
71 1 1 0.0 10.0 10.0 110.8
72 1 1 0.0 10.0 10.0 112.34
73 1 1 0.0 10.0 10.0 113.88
74 1 1 0.0 10.0 10.0 115.42
75 1 1 0.0 10.0 10.0 116.96000000000001
76 1 1 0.0 10.0 10.0 118.5
77 1 1 0.0 10.0 10.0 120.04
78 1 1 0.0 10.0 10.0 121.58
79 1 1 0.0 10.0 10.0 123.12
80 1 1 0.0 10.0 10.0 124.66
81 1 1 0.0 10.0 10.0 126.2
82 1 1 0.0 10.0 10.0 127.74000000000001
83 1 1 0.0 10.0 10.0 129.28
84 1 1 0.0 10.0 10.0 130.82
85 1 1 0.0 10.0 10.0 132.36
86 1 1 0.0 10.0 10.0 133.9
87 1 1 0.0 10.0 10.0 135.44
88 1 1 0.0 10.0 10.0 136.98
89 1 1 0.0 10.0 10.0 138.52
90 1 1 0.0 10.0 10.0 140.06
91 1 1 0.0 10.0 10.0 141.6
92 1 1 0.0 10.0 10.0 143.14000000000001
93 1 1 0.0 10.0 10.0 144.68
94 1 1 0.0 10.0 10.0 146.22
95 1 1 0.0 10.0 10.0 147.76
96 1 1 0.0 10.0 10.0 149.3
97 1 1 0.0 10.0 10.0 150.84
98 1 1 0.0 10.0 10.0 152.38
99 1 1 0.0 10.0 10.0 153.92000000000002
100 1 1 0.0 10.0 10.0 155.46
101 1 1 0.0 10.0 10.0 157.0
102 1 1 0.0 10.0 10.0 158.54
103 1 1 0.0 10.0 10.0 160.08
104 1 1 0.0 10.0 10.0 161.62
105 1 1 0.0 10.0 10.0 163.16
106 1 1 0.0 10.0 10.0 164.70000000000002
107 1 1 0.0 10.0 10.0 166.24
108 1 1 0.0 10.0 10.0 167.78
109 1 1 0.0 10.0 10.0 169.32
110 1 1 0.0 10.0 10.0 170.86
111 1 1 0.0 10.0 10.0 172.4
112 1 1 0.0 10.0 10.0 173.94
113 1 1 0.0 10.0 10.0 175.48000000000002
114 1 1 0.0 10.0 10.0 177.02
115 1 1 0.0 10.0 10.0 178.56
116 1 1 0.0 10.0 10.0 180.1
117 1 1 0.0 10.0 10.0 181.64000000000001
118 1 1 0.0 10.0 10.0 183.18
119 1 1 0.0 10.0 10.0 184.72
120 1 1 0.0 10.0 10.0 186.26
121 1 1 0.0 10.0 10.0 187.8
122 1 1 0.0 10.0 10.0 189.34
123 1 1 0.0 10.0 10.0 190.88
124 1 1 0.0 10.0 10.0 192.42000000000002
125 1 1 0.0 10.0 10.0 193.96
126 1 1 0.0 10.0 10.0 195.5
127 1 1 0.0 10.0 10.0 197.04
128 1 1 0.0 10.0 10.0 198.58
129 1 1 0.0 10.0 10.0 200.12
130 1 1 0.0 10.0 10.0 201.66
131 1 1 0.0 10.0 10.0 203.20000000000002
132 1 1 0.0 10.0 10.0 204.74
133 1 1 0.0 10.0 10.0 206.28
134 1 1 0.0 10.0 10.0 207.82
135 1 1 0.0 10.0 10.0 209.36
136 1 1 0.0 10.0 10.0 210.9
137 1 1 0.0 10.0 10.0 212.44
138 1 1 0.0 10.0 10.0 213.98000000000002
139 1 1 0.0 10.0 10.0 215.52
140 1 1 0.0 10.0 10.0 217.06
141 1 1 0.0 10.0 10.0 218.6
142 1 1 0.0 10.0 10.0 220.14000000000001
143 1 1 0.0 10.0 10.0 221.68
144 1 1 0.0 10.0 10.0 223.22
145 1 1 0.0 10.0 10.0 224.76
146 1 1 0.0 10.0 10.0 226.3
147 1 1 0.0 10.0 10.0 227.84
148 1 1 0.0 10.0 10.0 229.38
149 1 1 0.0 10.0 10.0 230.92000000000002
150 1 1 0.0 10.0 10.0 232.46
151 1 1 0.0 10.0 10.0 234.0
152 1 1 0.0 10.0 10.0 235.54
153 1 1 0.0 10.0 10.0 237.08
154 1 1 0.0 10.0 10.0 238.62
155 1 1 0.0 10.0 10.0 240.16
156 1 1 0.0 10.0 10.0 241.70000000000002
157 1 1 0.0 10.0 10.0 243.24
158 1 1 0.0 10.0 10.0 244.78
159 1 1 0.0 10.0 10.0 246.32
160 1 1 0.0 10.0 10.0 247.86
161 1 1 0.0 10.0 10.0 249.4
162 1 1 0.0 10.0 10.0 250.94
163 1 1 0.0 10.0 10.0 252.48000000000002
164 1 1 0.0 10.0 10.0 254.02
165 1 1 0.0 10.0 10.0 255.56
166 1 1 0.0 10.0 10.0 257.1
167 1 1 0.0 10.0 10.0 258.64
168 1 1 0.0 10.0 10.0 260.18
169 1 1 0.0 10.0 10.0 261.72
170 1 1 0.0 10.0 10.0 263.26
171 1 1 0.0 10.0 10.0 264.8
172 1 1 0.0 10.0 10.0 266.34000000000003
173 1 1 0.0 10.0 10.0 267.88
174 1 1 0.0 10.0 10.0 269.42
175 1 1 0.0 10.0 10.0 270.96
176 1 1 0.0 10.0 10.0 272.5
177 1 1 0.0 10.0 10.0 274.04
178 1 2 0.0 10.0 10.0 275.58
179 2 2 0.0 10.0 10.0 283.0
180 2 1 0.0 10.0 10.0 284.54
181 2 1 0.0 10.0 10.0 286.08
182 2 1 0.0 10.0 10.0 287.62
183 2 1 0.0 10.0 10.0 289.16
184 2 1 0.0 10.0 10.0 290.7
185 2 1 0.0 10.0 10.0 292.24
186 2 1 0.0 10.0 10.0 293.78
187 2 1 0.0 10.0 10.0 295.32
188 2 1 0.0 10.0 10.0 296.86
189 2 1 0.0 10.0 10.0 298.4
190 2 1 0.0 10.0 10.0 299.94
191 2 1 0.0 10.0 10.0 301.48
192 2 1 0.0 10.0 10.0 303.02
193 2 1 0.0 10.0 10.0 304.56
194 2 1 0.0 10.0 10.0 306.1
195 2 1 0.0 10.0 10.0 307.64
196 2 1 0.0 10.0 10.0 309.18
197 2 1 0.0 10.0 10.0 310.72
198 2 1 0.0 10.0 10.0 312.26
199 2 1 0.0 10.0 10.0 313.8
200 2 1 0.0 10.0 10.0 315.34000000000003
201 2 1 0.0 10.0 10.0 316.88
202 2 1 0.0 10.0 10.0 318.42
203 2 1 0.0 10.0 10.0 319.96
204 2 1 0.0 10.0 10.0 321.5
205 2 1 0.0 10.0 10.0 323.04
206 2 1 0.0 10.0 10.0 324.58
207 2 1 0.0 10.0 10.0 326.12
208 2 1 0.0 10.0 10.0 327.66
209 2 1 0.0 10.0 10.0 329.2
210 2 1 0.0 10.0 10.0 330.74
211 2 1 0.0 10.0 10.0 332.28
212 2 1 0.0 10.0 10.0 333.82
213 2 1 0.0 10.0 10.0 335.36
214 2 1 0.0 10.0 10.0 336.9
215 2 1 0.0 10.0 10.0 338.44
216 2 1 0.0 10.0 10.0 339.98
217 2 1 0.0 10.0 10.0 341.52
218 2 1 0.0 10.0 10.0 343.06
219 2 1 0.0 10.0 10.0 344.6
220 2 1 0.0 10.0 10.0 346.14
221 2 1 0.0 10.0 10.0 347.68
222 2 1 0.0 10.0 10.0 349.22
223 2 1 0.0 10.0 10.0 350.76
224 2 1 0.0 10.0 10.0 352.3
225 2 1 0.0 10.0 10.0 353.84000000000003
226 2 1 0.0 10.0 10.0 355.38
227 2 1 0.0 10.0 10.0 356.92
228 2 1 0.0 10.0 10.0 358.46000000000004
229 2 1 0.0 10.0 10.0 360.0
230 2 1 0.0 10.0 10.0 361.54
231 2 1 0.0 10.0 10.0 363.08
232 2 1 0.0 10.0 10.0 364.62
233 2 1 0.0 10.0 10.0 366.15999999999997
234 2 1 0.0 10.0 10.0 367.7
235 2 1 0.0 10.0 10.0 369.24
236 2 1 0.0 10.0 10.0 370.78
237 2 1 0.0 10.0 10.0 372.32
238 2 1 0.0 10.0 10.0 373.86
239 2 1 0.0 10.0 10.0 375.4
240 2 1 0.0 10.0 10.0 376.94
241 2 1 0.0 10.0 10.0 378.48
242 2 1 0.0 10.0 10.0 380.02
243 2 1 0.0 10.0 10.0 381.56
244 2 1 0.0 10.0 10.0 383.1
245 2 1 0.0 10.0 10.0 384.64
246 2 1 0.0 10.0 10.0 386.18
247 2 1 0.0 10.0 10.0 387.72
248 2 1 0.0 10.0 10.0 389.26
249 2 1 0.0 10.0 10.0 390.8
250 2 1 0.0 10.0 10.0 392.34000000000003
251 2 1 0.0 10.0 10.0 393.88
252 2 1 0.0 10.0 10.0 395.42
253 2 1 0.0 10.0 10.0 396.96000000000004
254 2 1 0.0 10.0 10.0 398.5
255 2 1 0.0 10.0 10.0 400.04
256 2 1 0.0 10.0 10.0 401.58
257 2 1 0.0 10.0 10.0 403.12
258 2 1 0.0 10.0 10.0 404.65999999999997
259 2 1 0.0 10.0 10.0 406.2
260 2 1 0.0 10.0 10.0 407.74
261 2 1 0.0 10.0 10.0 409.28
262 2 1 0.0 10.0 10.0 410.82
263 2 1 0.0 10.0 10.0 412.36
264 2 1 0.0 10.0 10.0 413.9
265 2 1 0.0 10.0 10.0 415.44
266 2 1 0.0 10.0 10.0 416.98
267 2 1 0.0 10.0 10.0 418.52
268 2 1 0.0 10.0 10.0 420.06
269 2 1 0.0 10.0 10.0 421.6
270 2 1 0.0 10.0 10.0 423.14
271 2 1 0.0 10.0 10.0 424.68
272 2 1 0.0 10.0 10.0 426.22
273 2 1 0.0 10.0 10.0 427.76
274 2 1 0.0 10.0 10.0 429.3
275 2 1 0.0 10.0 10.0 430.84000000000003
276 2 1 0.0 10.0 10.0 432.38
277 2 1 0.0 10.0 10.0 433.92
278 2 1 0.0 10.0 10.0 435.46000000000004
279 2 1 0.0 10.0 10.0 437.0
280 2 1 0.0 10.0 10.0 438.53999999999996
281 2 1 0.0 10.0 10.0 440.08000000000004
282 2 1 0.0 10.0 10.0 441.62
283 2 1 0.0 10.0 10.0 443.15999999999997
284 2 1 0.0 10.0 10.0 444.70000000000005
285 2 1 0.0 10.0 10.0 446.24
286 2 1 0.0 10.0 10.0 447.78
287 2 1 0.0 10.0 10.0 449.32
288 2 1 0.0 10.0 10.0 450.86
289 2 1 0.0 10.0 10.0 452.4
290 2 1 0.0 10.0 10.0 453.94
291 2 1 0.0 10.0 10.0 455.48
292 2 1 0.0 10.0 10.0 457.02
293 2 1 0.0 10.0 10.0 458.56
294 2 1 0.0 10.0 10.0 460.1
295 2 1 0.0 10.0 10.0 461.64
296 2 1 0.0 10.0 10.0 463.18
297 2 1 0.0 10.0 10.0 464.72
298 2 1 0.0 10.0 10.0 466.26
299 2 1 0.0 10.0 10.0 467.8
300 2 1 0.0 10.0 10.0 469.34000000000003
301 2 1 0.0 10.0 10.0 470.88
302 2 1 0.0 10.0 10.0 472.42
303 2 1 0.0 10.0 10.0 473.96000000000004
304 2 1 0.0 10.0 10.0 475.5
305 2 1 0.0 10.0 10.0 477.03999999999996
306 2 1 0.0 10.0 10.0 478.58000000000004
307 2 1 0.0 10.0 10.0 480.12
308 2 1 0.0 10.0 10.0 481.65999999999997
309 2 1 0.0 10.0 10.0 483.20000000000005
310 2 1 0.0 10.0 10.0 484.74
311 2 1 0.0 10.0 10.0 486.28
312 2 1 0.0 10.0 10.0 487.82
313 2 1 0.0 10.0 10.0 489.36
314 2 1 0.0 10.0 10.0 490.9
315 2 1 0.0 10.0 10.0 492.44
316 2 1 0.0 10.0 10.0 493.98
317 2 1 0.0 10.0 10.0 495.52
318 2 1 0.0 10.0 10.0 497.06
319 2 1 0.0 10.0 10.0 498.6
320 2 1 0.0 10.0 10.0 500.14
321 2 1 0.0 10.0 10.0 501.68
322 2 1 0.0 10.0 10.0 503.22
323 2 1 0.0 10.0 10.0 504.76
324 2 1 0.0 10.0 10.0 506.3
325 2 1 0.0 10.0 10.0 507.84000000000003
326 2 1 0.0 10.0 10.0 509.38
327 2 1 0.0 10.0 10.0 510.92
328 2 1 0.0 10.0 10.0 512.46
329 2 1 0.0 10.0 10.0 514.0
330 2 1 0.0 10.0 10.0 515.54
331 2 1 0.0 10.0 10.0 517.08
332 2 1 0.0 10.0 10.0 518.62
333 2 1 0.0 10.0 10.0 520.16
334 2 1 0.0 10.0 10.0 521.7
335 2 1 0.0 10.0 10.0 523.24
336 2 1 0.0 10.0 10.0 524.78
337 2 1 0.0 10.0 10.0 526.3199999999999
338 2 1 0.0 10.0 10.0 527.86
339 2 1 0.0 10.0 10.0 529.4
340 2 1 0.0 10.0 10.0 530.94
341 2 1 0.0 10.0 10.0 532.48
342 2 1 0.0 10.0 10.0 534.02
343 2 1 0.0 10.0 10.0 535.56
344 2 1 0.0 10.0 10.0 537.1
345 2 1 0.0 10.0 10.0 538.64
346 2 1 0.0 10.0 10.0 540.1800000000001
347 2 1 0.0 10.0 10.0 541.72
348 2 1 0.0 10.0 10.0 543.26
349 2 1 0.0 10.0 10.0 544.8
350 2 1 0.0 10.0 10.0 546.34
351 2 1 0.0 10.0 10.0 547.88
352 2 1 0.0 10.0 10.0 549.4200000000001
353 2 1 0.0 10.0 10.0 550.96
354 2 1 0.0 10.0 10.0 552.5
355 2 1 0.0 10.0 10.0 554.04
356 2 2 0.0 10.0 10.0 555.5799999999999
357 3 2 0.0 10.0 10.0 563.0
358 3 1 0.0 10.0 10.0 564.54
359 3 1 0.0 10.0 10.0 566.08
360 3 1 0.0 10.0 10.0 567.62
361 3 1 0.0 10.0 10.0 569.16
362 3 1 0.0 10.0 10.0 570.7
363 3 1 0.0 10.0 10.0 572.24
364 3 1 0.0 10.0 10.0 573.78
365 3 1 0.0 10.0 10.0 575.32
366 3 1 0.0 10.0 10.0 576.86
367 3 1 0.0 10.0 10.0 578.4
368 3 1 0.0 10.0 10.0 579.94
369 3 1 0.0 10.0 10.0 581.48
370 3 1 0.0 10.0 10.0 583.02
371 3 1 0.0 10.0 10.0 584.56
372 3 1 0.0 10.0 10.0 586.1
373 3 1 0.0 10.0 10.0 587.64
374 3 1 0.0 10.0 10.0 589.18
375 3 1 0.0 10.0 10.0 590.72
376 3 1 0.0 10.0 10.0 592.26
377 3 1 0.0 10.0 10.0 593.8
378 3 1 0.0 10.0 10.0 595.34
379 3 1 0.0 10.0 10.0 596.88
380 3 1 0.0 10.0 10.0 598.42
381 3 1 0.0 10.0 10.0 599.96
382 3 1 0.0 10.0 10.0 601.5
383 3 1 0.0 10.0 10.0 603.04
384 3 1 0.0 10.0 10.0 604.58
385 3 1 0.0 10.0 10.0 606.12
386 3 1 0.0 10.0 10.0 607.66
387 3 1 0.0 10.0 10.0 609.2
388 3 1 0.0 10.0 10.0 610.74
389 3 1 0.0 10.0 10.0 612.28
390 3 1 0.0 10.0 10.0 613.82
391 3 1 0.0 10.0 10.0 615.36
392 3 1 0.0 10.0 10.0 616.9
393 3 1 0.0 10.0 10.0 618.44
394 3 1 0.0 10.0 10.0 619.98
395 3 1 0.0 10.0 10.0 621.52
396 3 1 0.0 10.0 10.0 623.06
397 3 1 0.0 10.0 10.0 624.6
398 3 1 0.0 10.0 10.0 626.14
399 3 1 0.0 10.0 10.0 627.6800000000001
400 3 1 0.0 10.0 10.0 629.22
401 3 1 0.0 10.0 10.0 630.76
402 3 1 0.0 10.0 10.0 632.3
403 3 1 0.0 10.0 10.0 633.84
404 3 1 0.0 10.0 10.0 635.38
405 3 1 0.0 10.0 10.0 636.92
406 3 1 0.0 10.0 10.0 638.46
407 3 1 0.0 10.0 10.0 640.0
408 3 1 0.0 10.0 10.0 641.54
409 3 1 0.0 10.0 10.0 643.08
410 3 1 0.0 10.0 10.0 644.62
411 3 1 0.0 10.0 10.0 646.16
412 3 1 0.0 10.0 10.0 647.7
413 3 1 0.0 10.0 10.0 649.24
414 3 1 0.0 10.0 10.0 650.78
415 3 1 0.0 10.0 10.0 652.32
416 3 1 0.0 10.0 10.0 653.86
417 3 1 0.0 10.0 10.0 655.4
418 3 1 0.0 10.0 10.0 656.94
419 3 1 0.0 10.0 10.0 658.48
420 3 1 0.0 10.0 10.0 660.02
421 3 1 0.0 10.0 10.0 661.56
422 3 1 0.0 10.0 10.0 663.1
423 3 1 0.0 10.0 10.0 664.64
424 3 1 0.0 10.0 10.0 666.1800000000001
425 3 1 0.0 10.0 10.0 667.72
426 3 1 0.0 10.0 10.0 669.26
427 3 1 0.0 10.0 10.0 670.8
428 3 1 0.0 10.0 10.0 672.34
429 3 1 0.0 10.0 10.0 673.88
430 3 1 0.0 10.0 10.0 675.42
431 3 1 0.0 10.0 10.0 676.96
432 3 1 0.0 10.0 10.0 678.5
433 3 1 0.0 10.0 10.0 680.04
434 3 1 0.0 10.0 10.0 681.58
435 3 1 0.0 10.0 10.0 683.12
436 3 1 0.0 10.0 10.0 684.66
437 3 1 0.0 10.0 10.0 686.2
438 3 1 0.0 10.0 10.0 687.74
439 3 1 0.0 10.0 10.0 689.28
440 3 1 0.0 10.0 10.0 690.8199999999999
441 3 1 0.0 10.0 10.0 692.36
442 3 1 0.0 10.0 10.0 693.9
443 3 1 0.0 10.0 10.0 695.44
444 3 1 0.0 10.0 10.0 696.98
445 3 1 0.0 10.0 10.0 698.52
446 3 1 0.0 10.0 10.0 700.06
447 3 1 0.0 10.0 10.0 701.6
448 3 1 0.0 10.0 10.0 703.14
449 3 1 0.0 10.0 10.0 704.6800000000001
450 3 1 0.0 10.0 10.0 706.22
451 3 1 0.0 10.0 10.0 707.76
452 3 1 0.0 10.0 10.0 709.3
453 3 1 0.0 10.0 10.0 710.84
454 3 1 0.0 10.0 10.0 712.38
455 3 1 0.0 10.0 10.0 713.9200000000001
456 3 1 0.0 10.0 10.0 715.46
457 3 1 0.0 10.0 10.0 717.0
458 3 1 0.0 10.0 10.0 718.54
459 3 1 0.0 10.0 10.0 720.08
460 3 1 0.0 10.0 10.0 721.62
461 3 1 0.0 10.0 10.0 723.16
462 3 1 0.0 10.0 10.0 724.7
463 3 1 0.0 10.0 10.0 726.24
464 3 1 0.0 10.0 10.0 727.78
465 3 1 0.0 10.0 10.0 729.3199999999999
466 3 1 0.0 10.0 10.0 730.86
467 3 1 0.0 10.0 10.0 732.4
468 3 1 0.0 10.0 10.0 733.94
469 3 1 0.0 10.0 10.0 735.48
470 3 1 0.0 10.0 10.0 737.02
471 3 1 0.0 10.0 10.0 738.56
472 3 1 0.0 10.0 10.0 740.1
473 3 1 0.0 10.0 10.0 741.64
474 3 1 0.0 10.0 10.0 743.1800000000001
475 3 1 0.0 10.0 10.0 744.72
476 3 1 0.0 10.0 10.0 746.26
477 3 1 0.0 10.0 10.0 747.8
478 3 1 0.0 10.0 10.0 749.34
479 3 1 0.0 10.0 10.0 750.88
480 3 1 0.0 10.0 10.0 752.4200000000001
481 3 1 0.0 10.0 10.0 753.96
482 3 1 0.0 10.0 10.0 755.5
483 3 1 0.0 10.0 10.0 757.04
484 3 1 0.0 10.0 10.0 758.58
485 3 1 0.0 10.0 10.0 760.12
486 3 1 0.0 10.0 10.0 761.66
487 3 1 0.0 10.0 10.0 763.2
488 3 1 0.0 10.0 10.0 764.74
489 3 1 0.0 10.0 10.0 766.28
490 3 1 0.0 10.0 10.0 767.8199999999999
491 3 1 0.0 10.0 10.0 769.36
492 3 1 0.0 10.0 10.0 770.9
493 3 1 0.0 10.0 10.0 772.44
494 3 1 0.0 10.0 10.0 773.98
495 3 1 0.0 10.0 10.0 775.52
496 3 1 0.0 10.0 10.0 777.06
497 3 1 0.0 10.0 10.0 778.6
498 3 1 0.0 10.0 10.0 780.14
499 3 1 0.0 10.0 10.0 781.6800000000001
500 3 1 0.0 10.0 10.0 783.22
501 3 1 0.0 10.0 10.0 784.76
502 3 1 0.0 10.0 10.0 786.3
503 3 1 0.0 10.0 10.0 787.84
504 3 1 0.0 10.0 10.0 789.38
505 3 1 0.0 10.0 10.0 790.9200000000001
506 3 1 0.0 10.0 10.0 792.46
507 3 1 0.0 10.0 10.0 794.0
508 3 1 0.0 10.0 10.0 795.54
509 3 1 0.0 10.0 10.0 797.08
510 3 1 0.0 10.0 10.0 798.62
511 3 1 0.0 10.0 10.0 800.16
512 3 1 0.0 10.0 10.0 801.7
513 3 1 0.0 10.0 10.0 803.24
514 3 1 0.0 10.0 10.0 804.78
515 3 1 0.0 10.0 10.0 806.3199999999999
516 3 1 0.0 10.0 10.0 807.86
517 3 1 0.0 10.0 10.0 809.4
518 3 1 0.0 10.0 10.0 810.94
519 3 1 0.0 10.0 10.0 812.48
520 3 1 0.0 10.0 10.0 814.02
521 3 1 0.0 10.0 10.0 815.56
522 3 1 0.0 10.0 10.0 817.1
523 3 1 0.0 10.0 10.0 818.64
524 3 1 0.0 10.0 10.0 820.1800000000001
525 3 1 0.0 10.0 10.0 821.72
526 3 1 0.0 10.0 10.0 823.26
527 3 1 0.0 10.0 10.0 824.8
528 3 1 0.0 10.0 10.0 826.34
529 3 1 0.0 10.0 10.0 827.88
530 3 1 0.0 10.0 10.0 829.4200000000001
531 3 1 0.0 10.0 10.0 830.96
532 3 1 0.0 10.0 10.0 832.5
533 3 1 0.0 10.0 10.0 834.04
534 3 2 0.0 10.0 10.0 835.5799999999999
535 4 2 0.0 10.0 14.191225 3.0
536 4 1 0.0 10.0 14.191225 4.54
537 4 1 0.0 10.0 14.191225 6.08
538 4 1 0.0 10.0 14.191225 7.62
539 4 1 0.0 10.0 14.191225 9.16
540 4 1 0.0 10.0 14.191225 10.7
541 4 1 0.0 10.0 14.191225 12.24
542 4 1 0.0 10.0 14.191225 13.780000000000001
543 4 1 0.0 10.0 14.191225 15.32
544 4 1 0.0 10.0 14.191225 16.86
545 4 1 0.0 10.0 14.191225 18.4
546 4 1 0.0 10.0 14.191225 19.94
547 4 1 0.0 10.0 14.191225 21.48
548 4 1 0.0 10.0 14.191225 23.02
549 4 1 0.0 10.0 14.191225 24.560000000000002
550 4 1 0.0 10.0 14.191225 26.1
551 4 1 0.0 10.0 14.191225 27.64
552 4 1 0.0 10.0 14.191225 29.18
553 4 1 0.0 10.0 14.191225 30.72
554 4 1 0.0 10.0 14.191225 32.260000000000005
555 4 1 0.0 10.0 14.191225 33.8
556 4 1 0.0 10.0 14.191225 35.34
557 4 1 0.0 10.0 14.191225 36.88
558 4 1 0.0 10.0 14.191225 38.42
559 4 1 0.0 10.0 14.191225 39.96
560 4 1 0.0 10.0 14.191225 41.5
561 4 1 0.0 10.0 14.191225 43.04
562 4 1 0.0 10.0 14.191225 44.58
563 4 1 0.0 10.0 14.191225 46.120000000000005
564 4 1 0.0 10.0 14.191225 47.660000000000004
565 4 1 0.0 10.0 14.191225 49.2
566 4 1 0.0 10.0 14.191225 50.74
567 4 1 0.0 10.0 14.191225 52.28
568 4 1 0.0 10.0 14.191225 53.82
569 4 1 0.0 10.0 14.191225 55.36
570 4 1 0.0 10.0 14.191225 56.9
571 4 1 0.0 10.0 14.191225 58.44
572 4 1 0.0 10.0 14.191225 59.980000000000004
573 4 1 0.0 10.0 14.191225 61.52
574 4 1 0.0 10.0 14.191225 63.06
575 4 1 0.0 10.0 14.191225 64.6
576 4 1 0.0 10.0 14.191225 66.14
577 4 1 0.0 10.0 14.191225 67.68
578 4 1 0.0 10.0 14.191225 69.22
579 4 1 0.0 10.0 14.191225 70.76
580 4 1 0.0 10.0 14.191225 72.3
581 4 1 0.0 10.0 14.191225 73.84
582 4 1 0.0 10.0 14.191225 75.38
583 4 1 0.0 10.0 14.191225 76.92
584 4 1 0.0 10.0 14.191225 78.46000000000001
585 4 1 0.0 10.0 14.191225 80.0
586 4 1 0.0 10.0 14.191225 81.54
587 4 1 0.0 10.0 14.191225 83.08
588 4 1 0.0 10.0 14.191225 84.62
589 4 1 0.0 10.0 14.191225 86.16
590 4 1 0.0 10.0 14.191225 87.7
591 4 1 0.0 10.0 14.191225 89.24000000000001
592 4 1 0.0 10.0 14.191225 90.78
593 4 1 0.0 10.0 14.191225 92.32000000000001
594 4 1 0.0 10.0 14.191225 93.86
595 4 1 0.0 10.0 14.191225 95.4
596 4 1 0.0 10.0 14.191225 96.94
597 4 1 0.0 10.0 14.191225 98.48
598 4 1 0.0 10.0 14.191225 100.02
599 4 1 0.0 10.0 14.191225 101.56
600 4 1 0.0 10.0 14.191225 103.10000000000001
601 4 1 0.0 10.0 14.191225 104.64
602 4 1 0.0 10.0 14.191225 106.18
603 4 1 0.0 10.0 14.191225 107.72
604 4 1 0.0 10.0 14.191225 109.26
605 4 1 0.0 10.0 14.191225 110.8
606 4 1 0.0 10.0 14.191225 112.34
607 4 1 0.0 10.0 14.191225 113.88
608 4 1 0.0 10.0 14.191225 115.42
609 4 1 0.0 10.0 14.191225 116.96000000000001
610 4 1 0.0 10.0 14.191225 118.5
611 4 1 0.0 10.0 14.191225 120.04
612 4 1 0.0 10.0 14.191225 121.58
613 4 1 0.0 10.0 14.191225 123.12
614 4 1 0.0 10.0 14.191225 124.66
615 4 1 0.0 10.0 14.191225 126.2
616 4 1 0.0 10.0 14.191225 127.74000000000001
617 4 1 0.0 10.0 14.191225 129.28
618 4 1 0.0 10.0 14.191225 130.82
619 4 1 0.0 10.0 14.191225 132.36
620 4 1 0.0 10.0 14.191225 133.9
621 4 1 0.0 10.0 14.191225 135.44
622 4 1 0.0 10.0 14.191225 136.98
623 4 1 0.0 10.0 14.191225 138.52
624 4 1 0.0 10.0 14.191225 140.06
625 4 1 0.0 10.0 14.191225 141.6
626 4 1 0.0 10.0 14.191225 143.14000000000001
627 4 1 0.0 10.0 14.191225 144.68
628 4 1 0.0 10.0 14.191225 146.22
629 4 1 0.0 10.0 14.191225 147.76
630 4 1 0.0 10.0 14.191225 149.3
631 4 1 0.0 10.0 14.191225 150.84
632 4 1 0.0 10.0 14.191225 152.38
633 4 1 0.0 10.0 14.191225 153.92000000000002
634 4 1 0.0 10.0 14.191225 155.46
635 4 1 0.0 10.0 14.191225 157.0
636 4 1 0.0 10.0 14.191225 158.54
637 4 1 0.0 10.0 14.191225 160.08
638 4 1 0.0 10.0 14.191225 161.62
639 4 1 0.0 10.0 14.191225 163.16
640 4 1 0.0 10.0 14.191225 164.70000000000002
641 4 1 0.0 10.0 14.191225 166.24
642 4 1 0.0 10.0 14.191225 167.78
643 4 1 0.0 10.0 14.191225 169.32
644 4 1 0.0 10.0 14.191225 170.86
645 4 1 0.0 10.0 14.191225 172.4
646 4 1 0.0 10.0 14.191225 173.94
647 4 1 0.0 10.0 14.191225 175.48000000000002
648 4 1 0.0 10.0 14.191225 177.02
649 4 1 0.0 10.0 14.191225 178.56
650 4 1 0.0 10.0 14.191225 180.1
651 4 1 0.0 10.0 14.191225 181.64000000000001
652 4 1 0.0 10.0 14.191225 183.18
653 4 1 0.0 10.0 14.191225 184.72
654 4 1 0.0 10.0 14.191225 186.26
655 4 1 0.0 10.0 14.191225 187.8
656 4 1 0.0 10.0 14.191225 189.34
657 4 1 0.0 10.0 14.191225 190.88
658 4 1 0.0 10.0 14.191225 192.42000000000002
659 4 1 0.0 10.0 14.191225 193.96
660 4 1 0.0 10.0 14.191225 195.5
661 4 1 0.0 10.0 14.191225 197.04
662 4 1 0.0 10.0 14.191225 198.58
663 4 1 0.0 10.0 14.191225 200.12
664 4 1 0.0 10.0 14.191225 201.66
665 4 1 0.0 10.0 14.191225 203.20000000000002
666 4 1 0.0 10.0 14.191225 204.74
667 4 1 0.0 10.0 14.191225 206.28
668 4 1 0.0 10.0 14.191225 207.82
669 4 1 0.0 10.0 14.191225 209.36
670 4 1 0.0 10.0 14.191225 210.9
671 4 1 0.0 10.0 14.191225 212.44
672 4 1 0.0 10.0 14.191225 213.98000000000002
673 4 1 0.0 10.0 14.191225 215.52
674 4 1 0.0 10.0 14.191225 217.06
675 4 1 0.0 10.0 14.191225 218.6
676 4 1 0.0 10.0 14.191225 220.14000000000001
677 4 1 0.0 10.0 14.191225 221.68
678 4 1 0.0 10.0 14.191225 223.22
679 4 1 0.0 10.0 14.191225 224.76
680 4 1 0.0 10.0 14.191225 226.3
681 4 1 0.0 10.0 14.191225 227.84
682 4 1 0.0 10.0 14.191225 229.38
683 4 1 0.0 10.0 14.191225 230.92000000000002
684 4 1 0.0 10.0 14.191225 232.46
685 4 1 0.0 10.0 14.191225 234.0
686 4 1 0.0 10.0 14.191225 235.54
687 4 1 0.0 10.0 14.191225 237.08
688 4 1 0.0 10.0 14.191225 238.62
689 4 1 0.0 10.0 14.191225 240.16
690 4 1 0.0 10.0 14.191225 241.70000000000002
691 4 1 0.0 10.0 14.191225 243.24
692 4 1 0.0 10.0 14.191225 244.78
693 4 1 0.0 10.0 14.191225 246.32
694 4 1 0.0 10.0 14.191225 247.86
695 4 1 0.0 10.0 14.191225 249.4
696 4 1 0.0 10.0 14.191225 250.94
697 4 1 0.0 10.0 14.191225 252.48000000000002
698 4 1 0.0 10.0 14.191225 254.02
699 4 1 0.0 10.0 14.191225 255.56
700 4 1 0.0 10.0 14.191225 257.1
701 4 1 0.0 10.0 14.191225 258.64
702 4 1 0.0 10.0 14.191225 260.18
703 4 1 0.0 10.0 14.191225 261.72
704 4 1 0.0 10.0 14.191225 263.26
705 4 1 0.0 10.0 14.191225 264.8
706 4 1 0.0 10.0 14.191225 266.34000000000003
707 4 1 0.0 10.0 14.191225 267.88
708 4 1 0.0 10.0 14.191225 269.42
709 4 1 0.0 10.0 14.191225 270.96
710 4 1 0.0 10.0 14.191225 272.5
711 4 1 0.0 10.0 14.191225 274.04
712 4 2 0.0 10.0 14.191225 275.58
713 5 2 0.0 10.0 14.191225 283.0
714 5 1 0.0 10.0 14.191225 284.54
715 5 1 0.0 10.0 14.191225 286.08
716 5 1 0.0 10.0 14.191225 287.62
717 5 1 0.0 10.0 14.191225 289.16
718 5 1 0.0 10.0 14.191225 290.7
719 5 1 0.0 10.0 14.191225 292.24
720 5 1 0.0 10.0 14.191225 293.78
721 5 1 0.0 10.0 14.191225 295.32
722 5 1 0.0 10.0 14.191225 296.86
723 5 1 0.0 10.0 14.191225 298.4
724 5 1 0.0 10.0 14.191225 299.94
725 5 1 0.0 10.0 14.191225 301.48
726 5 1 0.0 10.0 14.191225 303.02
727 5 1 0.0 10.0 14.191225 304.56
728 5 1 0.0 10.0 14.191225 306.1
729 5 1 0.0 10.0 14.191225 307.64
730 5 1 0.0 10.0 14.191225 309.18
731 5 1 0.0 10.0 14.191225 310.72
732 5 1 0.0 10.0 14.191225 312.26
733 5 1 0.0 10.0 14.191225 313.8
734 5 1 0.0 10.0 14.191225 315.34000000000003
735 5 1 0.0 10.0 14.191225 316.88
736 5 1 0.0 10.0 14.191225 318.42
737 5 1 0.0 10.0 14.191225 319.96
738 5 1 0.0 10.0 14.191225 321.5
739 5 1 0.0 10.0 14.191225 323.04
740 5 1 0.0 10.0 14.191225 324.58
741 5 1 0.0 10.0 14.191225 326.12
742 5 1 0.0 10.0 14.191225 327.66
743 5 1 0.0 10.0 14.191225 329.2
744 5 1 0.0 10.0 14.191225 330.74
745 5 1 0.0 10.0 14.191225 332.28
746 5 1 0.0 10.0 14.191225 333.82
747 5 1 0.0 10.0 14.191225 335.36
748 5 1 0.0 10.0 14.191225 336.9
749 5 1 0.0 10.0 14.191225 338.44
750 5 1 0.0 10.0 14.191225 339.98
751 5 1 0.0 10.0 14.191225 341.52
752 5 1 0.0 10.0 14.191225 343.06
753 5 1 0.0 10.0 14.191225 344.6
754 5 1 0.0 10.0 14.191225 346.14
755 5 1 0.0 10.0 14.191225 347.68
756 5 1 0.0 10.0 14.191225 349.22
757 5 1 0.0 10.0 14.191225 350.76
758 5 1 0.0 10.0 14.191225 352.3
759 5 1 0.0 10.0 14.191225 353.84000000000003
760 5 1 0.0 10.0 14.191225 355.38
761 5 1 0.0 10.0 14.191225 356.92
762 5 1 0.0 10.0 14.191225 358.46000000000004
763 5 1 0.0 10.0 14.191225 360.0
764 5 1 0.0 10.0 14.191225 361.54
765 5 1 0.0 10.0 14.191225 363.08
766 5 1 0.0 10.0 14.191225 364.62
767 5 1 0.0 10.0 14.191225 366.15999999999997
768 5 1 0.0 10.0 14.191225 367.7
769 5 1 0.0 10.0 14.191225 369.24
770 5 1 0.0 10.0 14.191225 370.78
771 5 1 0.0 10.0 14.191225 372.32
772 5 1 0.0 10.0 14.191225 373.86
773 5 1 0.0 10.0 14.191225 375.4
774 5 1 0.0 10.0 14.191225 376.94
775 5 1 0.0 10.0 14.191225 378.48
776 5 1 0.0 10.0 14.191225 380.02
777 5 1 0.0 10.0 14.191225 381.56
778 5 1 0.0 10.0 14.191225 383.1
779 5 1 0.0 10.0 14.191225 384.64
780 5 1 0.0 10.0 14.191225 386.18
781 5 1 0.0 10.0 14.191225 387.72
782 5 1 0.0 10.0 14.191225 389.26
783 5 1 0.0 10.0 14.191225 390.8
784 5 1 0.0 10.0 14.191225 392.34000000000003
785 5 1 0.0 10.0 14.191225 393.88
786 5 1 0.0 10.0 14.191225 395.42
787 5 1 0.0 10.0 14.191225 396.96000000000004
788 5 1 0.0 10.0 14.191225 398.5
789 5 1 0.0 10.0 14.191225 400.04
790 5 1 0.0 10.0 14.191225 401.58
791 5 1 0.0 10.0 14.191225 403.12
792 5 1 0.0 10.0 14.191225 404.65999999999997
793 5 1 0.0 10.0 14.191225 406.2
794 5 1 0.0 10.0 14.191225 407.74
795 5 1 0.0 10.0 14.191225 409.28
796 5 1 0.0 10.0 14.191225 410.82
797 5 1 0.0 10.0 14.191225 412.36
798 5 1 0.0 10.0 14.191225 413.9
799 5 1 0.0 10.0 14.191225 415.44
800 5 1 0.0 10.0 14.191225 416.98
801 5 1 0.0 10.0 14.191225 418.52
802 5 1 0.0 10.0 14.191225 420.06
803 5 1 0.0 10.0 14.191225 421.6
804 5 1 0.0 10.0 14.191225 423.14
805 5 1 0.0 10.0 14.191225 424.68
806 5 1 0.0 10.0 14.191225 426.22
807 5 1 0.0 10.0 14.191225 427.76
808 5 1 0.0 10.0 14.191225 429.3
809 5 1 0.0 10.0 14.191225 430.84000000000003
810 5 1 0.0 10.0 14.191225 432.38
811 5 1 0.0 10.0 14.191225 433.92
812 5 1 0.0 10.0 14.191225 435.46000000000004
813 5 1 0.0 10.0 14.191225 437.0
814 5 1 0.0 10.0 14.191225 438.53999999999996
815 5 1 0.0 10.0 14.191225 440.08000000000004
816 5 1 0.0 10.0 14.191225 441.62
817 5 1 0.0 10.0 14.191225 443.15999999999997
818 5 1 0.0 10.0 14.191225 444.70000000000005
819 5 1 0.0 10.0 14.191225 446.24
820 5 1 0.0 10.0 14.191225 447.78
821 5 1 0.0 10.0 14.191225 449.32
822 5 1 0.0 10.0 14.191225 450.86
823 5 1 0.0 10.0 14.191225 452.4
824 5 1 0.0 10.0 14.191225 453.94
825 5 1 0.0 10.0 14.191225 455.48
826 5 1 0.0 10.0 14.191225 457.02
827 5 1 0.0 10.0 14.191225 458.56
828 5 1 0.0 10.0 14.191225 460.1
829 5 1 0.0 10.0 14.191225 461.64
830 5 1 0.0 10.0 14.191225 463.18
831 5 1 0.0 10.0 14.191225 464.72
832 5 1 0.0 10.0 14.191225 466.26
833 5 1 0.0 10.0 14.191225 467.8
834 5 1 0.0 10.0 14.191225 469.34000000000003
835 5 1 0.0 10.0 14.191225 470.88
836 5 1 0.0 10.0 14.191225 472.42
837 5 1 0.0 10.0 14.191225 473.96000000000004
838 5 1 0.0 10.0 14.191225 475.5
839 5 1 0.0 10.0 14.191225 477.03999999999996
840 5 1 0.0 10.0 14.191225 478.58000000000004
841 5 1 0.0 10.0 14.191225 480.12
842 5 1 0.0 10.0 14.191225 481.65999999999997
843 5 1 0.0 10.0 14.191225 483.20000000000005
844 5 1 0.0 10.0 14.191225 484.74
845 5 1 0.0 10.0 14.191225 486.28
846 5 1 0.0 10.0 14.191225 487.82
847 5 1 0.0 10.0 14.191225 489.36
848 5 1 0.0 10.0 14.191225 490.9
849 5 1 0.0 10.0 14.191225 492.44
850 5 1 0.0 10.0 14.191225 493.98
851 5 1 0.0 10.0 14.191225 495.52
852 5 1 0.0 10.0 14.191225 497.06
853 5 1 0.0 10.0 14.191225 498.6
854 5 1 0.0 10.0 14.191225 500.14
855 5 1 0.0 10.0 14.191225 501.68
856 5 1 0.0 10.0 14.191225 503.22
857 5 1 0.0 10.0 14.191225 504.76
858 5 1 0.0 10.0 14.191225 506.3
859 5 1 0.0 10.0 14.191225 507.84000000000003
860 5 1 0.0 10.0 14.191225 509.38
861 5 1 0.0 10.0 14.191225 510.92
862 5 1 0.0 10.0 14.191225 512.46
863 5 1 0.0 10.0 14.191225 514.0
864 5 1 0.0 10.0 14.191225 515.54
865 5 1 0.0 10.0 14.191225 517.08
866 5 1 0.0 10.0 14.191225 518.62
867 5 1 0.0 10.0 14.191225 520.16
868 5 1 0.0 10.0 14.191225 521.7
869 5 1 0.0 10.0 14.191225 523.24
870 5 1 0.0 10.0 14.191225 524.78
871 5 1 0.0 10.0 14.191225 526.3199999999999
872 5 1 0.0 10.0 14.191225 527.86
873 5 1 0.0 10.0 14.191225 529.4
874 5 1 0.0 10.0 14.191225 530.94
875 5 1 0.0 10.0 14.191225 532.48
876 5 1 0.0 10.0 14.191225 534.02
877 5 1 0.0 10.0 14.191225 535.56
878 5 1 0.0 10.0 14.191225 537.1
879 5 1 0.0 10.0 14.191225 538.64
880 5 1 0.0 10.0 14.191225 540.1800000000001
881 5 1 0.0 10.0 14.191225 541.72
882 5 1 0.0 10.0 14.191225 543.26
883 5 1 0.0 10.0 14.191225 544.8
884 5 1 0.0 10.0 14.191225 546.34
885 5 1 0.0 10.0 14.191225 547.88
886 5 1 0.0 10.0 14.191225 549.4200000000001
887 5 1 0.0 10.0 14.191225 550.96
888 5 1 0.0 10.0 14.191225 552.5
889 5 1 0.0 10.0 14.191225 554.04
890 5 2 0.0 10.0 14.191225 555.5799999999999
891 6 2 0.0 10.0 14.191225 563.0
892 6 1 0.0 10.0 14.191225 564.54
893 6 1 0.0 10.0 14.191225 566.08
894 6 1 0.0 10.0 14.191225 567.62
895 6 1 0.0 10.0 14.191225 569.16
896 6 1 0.0 10.0 14.191225 570.7
897 6 1 0.0 10.0 14.191225 572.24
898 6 1 0.0 10.0 14.191225 573.78
899 6 1 0.0 10.0 14.191225 575.32
900 6 1 0.0 10.0 14.191225 576.86
901 6 1 0.0 10.0 14.191225 578.4
902 6 1 0.0 10.0 14.191225 579.94
903 6 1 0.0 10.0 14.191225 581.48
904 6 1 0.0 10.0 14.191225 583.02
905 6 1 0.0 10.0 14.191225 584.56
906 6 1 0.0 10.0 14.191225 586.1
907 6 1 0.0 10.0 14.191225 587.64
908 6 1 0.0 10.0 14.191225 589.18
909 6 1 0.0 10.0 14.191225 590.72
910 6 1 0.0 10.0 14.191225 592.26
911 6 1 0.0 10.0 14.191225 593.8
912 6 1 0.0 10.0 14.191225 595.34
913 6 1 0.0 10.0 14.191225 596.88
914 6 1 0.0 10.0 14.191225 598.42
915 6 1 0.0 10.0 14.191225 599.96
916 6 1 0.0 10.0 14.191225 601.5
917 6 1 0.0 10.0 14.191225 603.04
918 6 1 0.0 10.0 14.191225 604.58
919 6 1 0.0 10.0 14.191225 606.12
920 6 1 0.0 10.0 14.191225 607.66
921 6 1 0.0 10.0 14.191225 609.2
922 6 1 0.0 10.0 14.191225 610.74
923 6 1 0.0 10.0 14.191225 612.28
924 6 1 0.0 10.0 14.191225 613.82